# vtk DataFile Version 3.0
2D-PROBLEM
ASCII
DATASET UNSTRUCTURED_GRID
POINTS 133 FLOAT
2.886572119724174e-15 -30.0 0.0
30.0 0.0 0.0
4.286122238378319e-15 -50.0 0.0
100.0 -50.0 0.0
100.0 0.0 0.0
1.836909530733566e-15 -15.0 0.0
15.0 0.0 0.0
4.269445148198563 -29.69464325642798 0.0
8.451976705242897 -28.78478920843492 0.0
12.4624503900566 -27.28895986063555 0.0
16.21922452366793 -25.23760598493543 0.0
19.64582201835855 -22.67248723062775 0.0
22.67248723062774 -19.64582201835856 0.0
25.23760598493543 -16.21922452366793 0.0
27.28895986063555 -12.4624503900566 0.0
28.78478920843492 -8.45197670524289 0.0
29.69464325642798 -4.269445148198555 0.0
3.586347179051244e-15 -39.99999999999997 0.0
11.11111111111109 -50.0 0.0
22.22222222222218 -50.0 0.0
33.33333333333328 -50.0 0.0
44.44444444444436 -50.0 0.0
55.55555555555551 -50.0 0.0
66.66666666666667 -50.0 0.0
77.77777777777783 -50.0 0.0
88.88888888888899 -50.0 0.0
100.0 -40.00000000000002 0.0
100.0 -30.00000000000004 0.0
100.0 -20.00000000000001 0.0
100.0 -9.99999999999997 0.0
89.99999999999999 0.0 0.0
79.99999999999996 0.0 0.0
69.99999999999996 0.0 0.0
59.99999999999996 0.0 0.0
49.99999999999998 0.0 0.0
39.99999999999999 0.0 0.0
2.186797060397102e-15 -20.0 0.0
2.536684590060638e-15 -25.0 0.0
25.0 0.0 0.0
20.0 0.0 0.0
14.84732162821399 -2.134722574099274 0.0
14.39239460421746 -4.225988352621435 0.0
13.64447993031778 -6.231225195028279 0.0
12.61880299246773 -8.109612261833941 0.0
11.3362436153139 -9.82291100917925 0.0
9.822911009179307 -11.33624361531385 0.0
8.109612261833995 -12.6188029924677 0.0
6.23122519502832 -13.64447993031776 0.0
4.225988352621471 -14.39239460421745 0.0
2.134722574099292 -14.84732162821399 0.0
26.12971894367192 -22.43791787294446 0.0
59.91672554069491 -9.86027866800615 0.0
89.84601800704068 -19.95148723545508 0.0
14.90693402716538 -31.40913019017664 0.0
43.29656135913577 -37.67746583065152 0.0
78.35458416858302 -39.84259599556285 0.0
31.79196946236806 -14.32823719962367 0.0
50.17901386092588 -9.93939511849109 0.0
89.58502279404071 -29.91119897270275 0.0
12.45404724915879 -40.32768522769782 0.0
56.13881959826851 -39.22634500045938 0.0
22.70946043985121 -37.41690578135533 0.0
89.95226857342068 -9.997603165896933 0.0
79.90042300731102 -10.01672598336473 0.0
5.423642084019299 -33.92186713709039 0.0
89.23044366510389 -39.92926057144618 0.0
34.0930567107869 -5.425446962714268 0.0
22.6260108798606 -25.7254047098437 0.0
48.26995190806802 -27.67354769833286 0.0
79.58434966273096 -19.94072867314652 0.0
31.68010825637334 -41.18447287733122 0.0
24.97258648286488 -28.20866735463757 0.0
67.372512942294 -39.70915864050077 0.0
29.25195294278686 -18.61471257714563 0.0
49.95089232647477 -19.15489912157346 0.0
69.82040505902972 -9.96783103925735 0.0
40.28260165696217 -11.4497906510724 0.0
9.78826074084543 -33.42862179565772 0.0
19.07125594596459 -28.68176608027798 0.0
79.0067959381784 -29.85571201290669 0.0
34.14182398110351 -10.42190414197391 0.0
35.47854920425195 -15.84119500230626 0.0
59.22065202941833 -19.48811009914315 0.0
29.72088146554567 -25.98285066893288 0.0
68.33803118527136 -29.66815336634984 0.0
42.0463548739488 -19.93361916966131 0.0
57.77520809516204 -29.07516457698979 0.0
69.2571504891937 -19.78582714216149 0.0
37.32691688928617 -29.40382743707904 0.0
18.72207307611365 -35.1653488604581 0.0
22.92580086794622 -32.60485745477128 0.0
42.47288142845967 -25.86034488208342 0.0
34.62434091067327 -21.84457853610795 0.0
28.50202331136889 -33.44551497535173 0.0
22.40175525266143 -42.23162275395462 0.0
13.61021265217605 -9.003070963393935 0.0
7.790219635552937 -15.26935229814238 0.0
24.93648670234101 -7.819375909974926 0.0
16.07761449618177 -6.001547407583651 0.0
13.15147536073893 -21.76084773724077 0.0
22.20723820487832 -13.87697770327643 0.0
5.11477049316796 -19.93216553997132 0.0
8.513328828950058 -24.70998099159599 0.0
16.89012135422008 -19.43236355510442 0.0
4.236366421347597 -16.67405570691018 0.0
13.35084248938595 -11.13514918420579 0.0
9.734172285089905 -14.96087596717325 0.0
17.3834876660453 -3.651792475386241 0.0
4.455155724337942 -24.85105864022634 0.0
2.447858121787846 -16.93020876197539 0.0
25.18465759318555 -4.126544123355899 0.0
14.91691874182008 -7.93168996243508 0.0
5.845168880843708 -16.03307667672192 0.0
18.46216524061791 -8.104013615942051 0.0
9.561935030858393 -17.95674991641841 0.0
15.91737120943422 -10.15691084526987 0.0
9.034530330690437 -21.10323189641782 0.0
21.43090313333794 -4.49592580372876 0.0
19.74513681727007 -16.72049750543131 0.0
14.76074097481161 -16.72484077971246 0.0
24.01091253093912 -11.00845530297853 0.0
11.44477923623847 -13.01232507929026 0.0
11.35163184398914 -24.70564561645208 0.0
19.11241577805478 -5.163276156069234 0.0
7.172131844239232 -17.05348250675151 0.0
19.99772661433393 -11.43543751963919 0.0
16.89165939602244 -13.62485538928395 0.0
12.26680027048594 -18.06876582497085 0.0
21.77736785003896 -7.730585925988791 0.0
14.29513764802631 -13.23065247649084 0.0
11.75418068940408 -15.93029580468457 0.0
13.05816610152181 -14.65526231312727 0.0
21.89068299837193 -10.02177338257391 0.0
CELLS 112 560
4 35 66 80 76
4 74 85 91 68
4 92 85 76 81
4 18 59 17 2
4 57 34 35 76
4 76 85 74 57
4 67 50 12 11
4 94 70 93 61
4 59 18 19 94
4 94 19 20 70
4 34 57 51 33
4 60 54 21 22
4 70 20 21 54
4 25 3 26 65
4 69 87 84 79
4 60 22 23 72
4 54 60 86 68
4 72 23 24 55
4 65 55 24 25
4 54 68 91 88
4 4 30 62 29
4 28 29 62 52
4 31 63 62 30
4 85 92 88 91
4 31 32 75 63
4 62 63 69 52
4 68 86 82 74
4 65 26 27 58
4 33 51 75 32
4 28 52 58 27
4 87 69 63 75
4 57 74 82 51
4 55 65 58 79
4 87 75 51 82
4 69 79 58 52
4 72 55 79 84
4 67 71 83 50
4 13 73 56 14
4 17 59 77 64
4 67 78 90 71
4 73 13 12 50
4 80 15 14 56
4 92 81 56 73
4 78 67 11 10
4 92 73 50 83
4 8 77 53 9
4 78 10 9 53
4 35 1 16 66
4 76 80 56 81
4 90 78 53 89
4 59 89 53 77
4 77 8 7 64
4 92 83 93 88
4 90 93 83 71
4 59 94 61 89
4 80 66 16 15
4 93 90 89 61
4 7 0 17 64
4 93 70 54 88
4 60 72 84 86
4 87 82 86 84
4 104 101 124 112
4 113 125 132 128
4 123 117 39 107
4 114 124 101 116
4 116 101 108 102
4 1 38 110 16
4 119 103 118 126
4 39 117 110 38
4 0 7 108 37
4 125 100 120 132
4 97 15 16 110
4 120 100 13 14
4 126 125 113 115
4 101 36 37 108
4 99 10 11 103
4 100 118 12 13
4 103 11 12 118
4 97 120 14 15
4 99 122 9 10
4 102 108 7 8
4 119 127 99 103
4 114 116 99 127
4 122 102 8 9
4 36 101 104 109
4 131 130 127 119
4 121 105 44 45
4 102 122 99 116
4 131 129 105 121
4 46 106 121 45
4 126 129 131 119
4 113 128 117 123
4 117 128 97 110
4 111 95 105 115
4 43 44 105 95
4 126 115 105 129
4 42 43 95 111
4 131 121 106 130
4 47 96 106 46
4 115 113 98 111
4 41 42 111 98
4 127 130 106 114
4 113 123 107 98
4 36 109 49 5
4 106 96 124 114
4 124 96 47 112
4 97 128 132 120
4 40 41 98 107
4 47 48 104 112
4 48 49 109 104
4 6 40 107 39
4 118 100 125 126
CELL_TYPES 112
9
9
9
9
9
9
9
9
9
9
9
9
9
9
9
9
9
9
9
9
9
9
9
9
9
9
9
9
9
9
9
9
9
9
9
9
9
9
9
9
9
9
9
9
9
9
9
9
9
9
9
9
9
9
9
9
9
9
9
9
9
9
9
9
9
9
9
9
9
9
9
9
9
9
9
9
9
9
9
9
9
9
9
9
9
9
9
9
9
9
9
9
9
9
9
9
9
9
9
9
9
9
9
9
9
9
9
9
9
9
9
9
POINT_DATA 133
VECTORS NODAL_DISPACEMENTS FLOAT
0.0 0.0228089988854803 0
0.05318308720601733 0.0 0
0.0 0.02810154705086034 0
0.11005582894707756 0.012775394647043484 0
0.11281991899726437 0.0 0
0.0 0.018848921829775954 0
0.04908776347091484 0.0 0
0.005322331297409866 0.022326657356282312 0
0.01079551769402402 0.020445457584504053 0
0.01656275762214702 0.01770642411296958 0
0.022649076074658766 0.014391371115009809 0
0.028870961516998046 0.010951616209501261 0
0.03507344227770421 0.007754672530726146 0
0.04091942995936074 0.005050652032102104 0
0.046053472852050054 0.0029771307026800814 0
0.049990062897611896 0.0015500229621788699 0
0.05251673478531386 0.0006691139399233571 0
0.0 0.025485497240031452 0
0.010491796063056514 0.026104536717419646 0
0.02242004693895266 0.021730888509703783 0
0.03603737115941799 0.017576646666755392 0
0.04979301637479427 0.015075762410857734 0
0.06318071473620315 0.013832093348943893 0
0.07574749457032379 0.013500840816085836 0
0.08758392627880783 0.01341845706268073 0
0.09892196921485909 0.013221198189206898 0
0.11054333678184691 0.009785932269324381 0
0.11122645624786293 0.006923305649106521 0
0.11199338421473569 0.004346602307317492 0
0.11259361350945864 0.002077749307281833 0
0.10311002435063246 0.0 0
0.09350544111969519 0.0 0
0.08416427760591519 0.0 0
0.07522063296013749 0.0 0
0.06686080761714479 0.0 0
0.059545108629002495 0.0 0
0.0 0.02167341393600992 0
0.0 0.02225534816010811 0
0.051272893041328094 0.0 0
0.05038535096570713 0.0 0
0.04887538396721282 0.0025112982722989025 0
0.04725633335630626 0.005131437216203095 0
0.044749131273668634 0.007647927018096171 0
0.04152286618268139 0.010077401094890198 0
0.037241553952180206 0.012113675876606366 0
0.032228740323155675 0.014138747420055773 0
0.026515367136684037 0.015776490990732393 0
0.020272087125329626 0.01734043340575863 0
0.013750509784922647 0.018150569551365615 0
0.0067074609418730224 0.01883254111310324 0
0.03738271764741363 0.00809797657754022 0
0.07456742799281459 0.002073419086529332 0
0.10202073313343485 0.004750089699396173 0
0.018606595307703467 0.018062003207278975 0
0.05123074134012463 0.010683236899571477 0
0.08867725054251564 0.010303514846932408 0
0.048778451067469315 0.0032448566953460867 0
0.06606891652065627 0.0019751243922277012 0
0.10088670935053388 0.007370192306829911 0
0.01396205558108264 0.02262596390990978 0
0.0652212778102452 0.010187588653763275 0
0.026894514241907537 0.01680305153925706 0
0.10280610825505196 0.0023232549021493043 0
0.0930998589417965 0.0023399384231345697 0
0.0064094278272636114 0.02283294353149215 0
0.09974559010361066 0.01021441258814358 0
0.05465900903256496 0.0009083378535717173 0
0.03105441547325836 0.011208313742989341 0
0.059570916678687504 0.006810238602487043 0
0.09197134739270305 0.004775835851397307 0
0.03666922372025472 0.01476728497469372 0
0.032920519917893507 0.011528407615022584 0
0.07723448868591622 0.01020406702131142 0
0.04348274888860881 0.0053951433152944275 0
0.06372096926716239 0.00419271856267325 0
0.08359045028934699 0.0022319174773876276 0
0.0575126196190027 0.002172425703985779 0
0.011721255599986723 0.02124015311757066 0
0.02501080665310746 0.014545343016911542 0
0.09032486097328188 0.007411849665379688 0
0.052831915300812396 0.001955697969514977 0
0.05132489709328925 0.0036125468569182507 0
0.07242115443982547 0.004342992138189208 0
0.03975944549182964 0.008840014802149018 0
0.07961315089334542 0.007226885156058466 0
0.055813005886692475 0.004591655081519822 0
0.06899452964443609 0.006975446779212299 0
0.08197217126517518 0.004587267593667298 0
0.04712483424481822 0.008590511568529503 0
0.02250703952840292 0.01771993010138764 0
0.028593441034966974 0.014583738189295776 0
0.05407994420018421 0.006600886789366083 0
0.047430514355279146 0.0059240397182212775 0
0.035195496016702146 0.012655428653274136 0
0.02522493208113737 0.01877240688172803 0
0.03988131750956082 0.008435272316725905 0
0.019456186332006454 0.01654949081184598 0
0.04795741525640218 0.0016160615767769188 0
0.04558789160282687 0.004086131190754589 0
0.020269861196338824 0.014669768276000208 0
0.03991483671630826 0.004666504031207731 0
0.008968062386358302 0.01997952112031256 0
0.011947409918454015 0.019193980107193042 0
0.027611730059648027 0.010637919163843997 0
0.009982986684804775 0.019401466427918415 0
0.03524705733506407 0.009133155588793046 0
0.02285528820267831 0.01453949664135818 0
0.048453249621152855 0.0019143991146448552 0
0.006132027612316498 0.021309933017065907 0
0.005761806980704438 0.020010454150961532 0
0.050422746432837444 0.0006629075922518659 0
0.042335556751039526 0.006241792925331275 0
0.014330084319695112 0.01822922143410257 0
0.04388002935359909 0.00327630770159318 0
0.018118047374847325 0.01589803292085412 0
0.039047041288575494 0.006085490963202938 0
0.014594616285538764 0.01758759081595568 0
0.048822026158929104 0.001150153143845768 0
0.03407311990228923 0.007297631353131217 0
0.02752458472255803 0.010574859508903843 0
0.04452947650196866 0.002862690506223157 0
0.029377981225994696 0.012039398638647666 0
0.016044355424141666 0.01732915387837993 0
0.04749719646235936 0.0019413568209222585 0
0.01522298868184975 0.017644794731347987 0
0.040585652288536236 0.004185247852611782 0
0.03441080375157468 0.0070329066840282214 0
0.022248980361239436 0.013468193525691157 0
0.04615072001746986 0.0020706202371478105 0
0.032150086886534 0.009057245365192897 0
0.024344243831211834 0.012906276912422566 0
0.02808674678004393 0.010913864369652847 0
0.043849258030673174 0.0029468595491468305 0
